<PP_INFO>
Generated using Fritz-Haber code                                                
Author: unknown    Generation date: as well                                     
Info: automatically converted from FHI format                                   
    1        The Pseudo was generated with a Scalar-Relativistic Calculation
nl pn  l   occ               Rcut            Rcut US             E pseu
5s  0  0  2.00      0.00000000000      0.00000000000      0.00000000000
5p  0  1  1.00      0.00000000000      0.00000000000      0.00000000000
4d  0  2 10.00      0.00000000000      0.00000000000      0.00000000000


49.00  8  3  3 0.94  : z ncor nval iexc rnlc
       1  0    2.00   : n l occ
       2  0    2.00
       2  1    6.00
       3  0    2.00
       3  1    6.00
       3  2   10.00
       4  0    2.00
       4  1    6.00
       4  2   10.00
       5  0    2.00
       5  1    1.00
2  t                  : lmax type
0 2.08 0.0 t
1 2.08 0.0 t
2 2.08 0.0 t

[kioup@hopper08] <1070> [16:36:10] [~/work/GaN/pseudo/In/nlcc] $ /usr/common/usg/espresso/Build/espresso-4.2.1/upftools/fhi2upf.x
Unable to open kdreg version file: No such file or directory
Warning: Unable to open kgni version file /sys/class/gemini/kgni0/version errno 2 at line 519 in file cdm.c
Input file > in.cpi
Pseudopotential with NLCC successfully read
Atom name > In
l local (max: 2) > 0
DFT > PZ
Wavefunction # 1: label, occupancy > 5s, 2.00
Wavefunction # 2: label, occupancy > 5p, 1.00
Wavefunction # 3: label, occupancy > 4d, 10.00
Pseudopotential successfully converted
Output PP file in UPF format :  in.cpi.UPF 


</PP_INFO>


<PP_HEADER>
   0                   Version Number
  In                   Element
   NC                  Norm - Conserving pseudopotential
    T                  Nonlinear Core Correction
SLA  PZ   NOGX NOGC    PZ   Exchange-Correlation functional
   13.00000000000      Z valence
    0.00000000000      Total energy
  0.0000000  0.0000000 Suggested cutoff for wfc and rho
    2                  Max angular momentum component
  547                  Number of points in mesh
    3    2             Number of Wavefunctions, Number of Projectors
 Wavefunctions         nl  l   occ
                       5s  0  2.00
                       5p  1  1.00
                       4d  2 10.00
</PP_HEADER>


<PP_MESH>
  <PP_R>
  1.27551020408E-04  1.30701530612E-04  1.33929858418E-04  1.37237925921E-04
  1.40627702692E-04  1.44101206948E-04  1.47660506760E-04  1.51307721277E-04
  1.55045021992E-04  1.58874634035E-04  1.62798837496E-04  1.66819968782E-04
  1.70940422011E-04  1.75162650435E-04  1.79489167901E-04  1.83922550348E-04
  1.88465437341E-04  1.93120533644E-04  1.97890610825E-04  2.02778508912E-04
  2.07787138082E-04  2.12919480393E-04  2.18178591558E-04  2.23567602770E-04
  2.29089722558E-04  2.34748238705E-04  2.40546520202E-04  2.46488019250E-04
  2.52576273326E-04  2.58814907277E-04  2.65207635487E-04  2.71758264083E-04
  2.78470693206E-04  2.85348919328E-04  2.92397037636E-04  2.99619244465E-04
  3.07019839804E-04  3.14603229847E-04  3.22373929624E-04  3.30336565686E-04
  3.38495878858E-04  3.46856727066E-04  3.55424088225E-04  3.64203063204E-04
  3.73198878865E-04  3.82416891173E-04  3.91862588385E-04  4.01541594318E-04
  4.11459671698E-04  4.21622725589E-04  4.32036806911E-04  4.42708116041E-04
  4.53643006507E-04  4.64847988768E-04  4.76329734091E-04  4.88095078523E-04
  5.00151026962E-04  5.12504757328E-04  5.25163624834E-04  5.38135166368E-04
  5.51427104977E-04  5.65047354470E-04  5.79004024125E-04  5.93305423521E-04
  6.07960067482E-04  6.22976681149E-04  6.38364205173E-04  6.54131801041E-04
  6.70288856527E-04  6.86844991283E-04  7.03810062568E-04  7.21194171113E-04
  7.39007667140E-04  7.57261156518E-04  7.75965507084E-04  7.95131855109E-04
  8.14771611930E-04  8.34896470745E-04  8.55518413572E-04  8.76649718388E-04
  8.98302966432E-04  9.20491049703E-04  9.43227178630E-04  9.66524889942E-04
  9.90398054724E-04  1.01486088668E-03  1.03992795058E-03  1.06561417096E-03
  1.09193484098E-03  1.11890563155E-03  1.14654260065E-03  1.17486220289E-03
  1.20388129930E-03  1.23361716739E-03  1.26408751142E-03  1.29531047296E-03
  1.32730464164E-03  1.36008906629E-03  1.39368326622E-03  1.42810724290E-03
  1.46338149180E-03  1.49952701465E-03  1.53656533191E-03  1.57451849561E-03
  1.61340910245E-03  1.65326030728E-03  1.69409583687E-03  1.73594000404E-03
  1.77881772214E-03  1.82275451988E-03  1.86777655652E-03  1.91391063746E-03
  1.96118423021E-03  2.00962548069E-03  2.05926323007E-03  2.11012703185E-03
  2.16224716954E-03  2.21565467462E-03  2.27038134509E-03  2.32645976431E-03
  2.38392332049E-03  2.44280622651E-03  2.50314354030E-03  2.56497118575E-03
  2.62832597403E-03  2.69324562559E-03  2.75976879255E-03  2.82793508172E-03
  2.89778507824E-03  2.96936036967E-03  3.04270357080E-03  3.11785834900E-03
  3.19486945022E-03  3.27378272564E-03  3.35464515897E-03  3.43750489439E-03
  3.52241126528E-03  3.60941482354E-03  3.69856736968E-03  3.78992198371E-03
  3.88353305671E-03  3.97945632321E-03  4.07774889439E-03  4.17846929208E-03
  4.28167748360E-03  4.38743491744E-03  4.49580455990E-03  4.60685093253E-03
  4.72064015056E-03  4.83723996228E-03  4.95671978935E-03  5.07915076815E-03
  5.20460579212E-03  5.33315955519E-03  5.46488859620E-03  5.59987134453E-03
  5.73818816674E-03  5.87992141446E-03  6.02515547339E-03  6.17397681359E-03
  6.32647404088E-03  6.48273794969E-03  6.64286157705E-03  6.80694025800E-03
  6.97507168237E-03  7.14735595293E-03  7.32389564497E-03  7.50479586740E-03
  7.69016432532E-03  7.88011138416E-03  8.07475013535E-03  8.27419646369E-03
  8.47856911634E-03  8.68798977351E-03  8.90258312092E-03  9.12247692401E-03
  9.34780210403E-03  9.57869281600E-03  9.81528652856E-03  1.00577241058E-02
  1.03061498912E-02  1.05607117935E-02  1.08215613748E-02  1.10888539408E-02
  1.13627486331E-02  1.16434085244E-02  1.19310007149E-02  1.22256964326E-02
  1.25276711345E-02  1.28371046115E-02  1.31541810954E-02  1.34790893684E-02
  1.38120228758E-02  1.41531798409E-02  1.45027633830E-02  1.48609816385E-02
  1.52280478850E-02  1.56041806677E-02  1.59896039302E-02  1.63845471473E-02
  1.67892454619E-02  1.72039398248E-02  1.76288771384E-02  1.80643104037E-02
  1.85104988707E-02  1.89677081928E-02  1.94362105852E-02  1.99162849866E-02
  2.04082172258E-02  2.09123001913E-02  2.14288340060E-02  2.19581262060E-02
  2.25004919233E-02  2.30562540738E-02  2.36257435494E-02  2.42092994151E-02
  2.48072691106E-02  2.54200086576E-02  2.60478828715E-02  2.66912655784E-02
  2.73505398382E-02  2.80260981722E-02  2.87183427970E-02  2.94276858641E-02
  3.01545497050E-02  3.08993670827E-02  3.16625814496E-02  3.24446472114E-02
  3.32460299976E-02  3.40672069385E-02  3.49086669499E-02  3.57709110235E-02
  3.66544525258E-02  3.75598175032E-02  3.84875449955E-02  3.94381873569E-02
  4.04123105846E-02  4.14104946561E-02  4.24333338741E-02  4.34814372208E-02
  4.45554287201E-02  4.56559478095E-02  4.67836497204E-02  4.79392058685E-02
  4.91233042535E-02  5.03366498685E-02  5.15799651203E-02  5.28539902588E-02
  5.41594838181E-02  5.54972230685E-02  5.68680044782E-02  5.82726441889E-02
  5.97119785003E-02  6.11868643693E-02  6.26981799192E-02  6.42468249632E-02
  6.58337215398E-02  6.74598144618E-02  6.91260718790E-02  7.08334858544E-02
  7.25830729551E-02  7.43758748570E-02  7.62129589660E-02  7.80954190525E-02
  8.00243759031E-02  8.20009779879E-02  8.40264021442E-02  8.61018542771E-02
  8.82285700778E-02  9.04078157587E-02  9.26408888079E-02  9.49291187615E-02
  9.72738679949E-02  9.96765325344E-02  1.02138542888E-01  1.04661364897E-01
  1.07246500610E-01  1.09895489175E-01  1.12609907758E-01  1.15391372480E-01
  1.18241539380E-01  1.21162105403E-01  1.24154809406E-01  1.27221433198E-01
  1.30363802598E-01  1.33583788522E-01  1.36883308099E-01  1.40264325809E-01
  1.43728854657E-01  1.47278957367E-01  1.50916747613E-01  1.54644391280E-01
  1.58464107744E-01  1.62378171205E-01  1.66388912034E-01  1.70498718161E-01
  1.74710036500E-01  1.79025374402E-01  1.83447301149E-01  1.87978449488E-01
  1.92621517190E-01  1.97379268665E-01  2.02254536601E-01  2.07250223655E-01
  2.12369304179E-01  2.17614825992E-01  2.22989912194E-01  2.28497763025E-01
  2.34141657772E-01  2.39924956719E-01  2.45851103150E-01  2.51923625398E-01
  2.58146138945E-01  2.64522348577E-01  2.71056050587E-01  2.77751135036E-01
  2.84611588072E-01  2.91641494297E-01  2.98845039206E-01  3.06226511675E-01
  3.13790306513E-01  3.21540927084E-01  3.29482987983E-01  3.37621217786E-01
  3.45960461865E-01  3.54505685274E-01  3.63261975700E-01  3.72234546500E-01
  3.81428739798E-01  3.90850029671E-01  4.00504025404E-01  4.10396474831E-01
  4.20533267760E-01  4.30920439474E-01  4.41564174328E-01  4.52470809434E-01
  4.63646838427E-01  4.75098915337E-01  4.86833858545E-01  4.98858654851E-01
  5.11180463626E-01  5.23806621078E-01  5.36744644619E-01  5.50002237341E-01
  5.63587292603E-01  5.77507898730E-01  5.91772343829E-01  6.06389120721E-01
  6.21366932003E-01  6.36714695224E-01  6.52441548196E-01  6.68556854436E-01
  6.85070208741E-01  7.01991442897E-01  7.19330631536E-01  7.37098098135E-01
  7.55304421159E-01  7.73960440362E-01  7.93077263239E-01  8.12666271641E-01
  8.32739128550E-01  8.53307785025E-01  8.74384487315E-01  8.95981784152E-01
  9.18112534221E-01  9.40789913816E-01  9.64027424687E-01  9.87838902077E-01
  1.01223852296E+00  1.03724081448E+00  1.06286066259E+00  1.08911332096E+00
  1.11601441999E+00  1.14357997616E+00  1.17182640157E+00  1.20077051369E+00
  1.23042954538E+00  1.26082115515E+00  1.29196343768E+00  1.32387493459E+00
  1.35657464548E+00  1.39008203922E+00  1.42441706559E+00  1.45960016711E+00
  1.49565229124E+00  1.53259490283E+00  1.57044999693E+00  1.60924011185E+00
  1.64898834262E+00  1.68971835468E+00  1.73145439804E+00  1.77422132167E+00
  1.81804458832E+00  1.86295028965E+00  1.90896516180E+00  1.95611660130E+00
  2.00443268135E+00  2.05394216858E+00  2.10467454014E+00  2.15666000129E+00
  2.20992950332E+00  2.26451476205E+00  2.32044827667E+00  2.37776334911E+00
  2.43649410383E+00  2.49667550819E+00  2.55834339325E+00  2.62153447506E+00
  2.68628637659E+00  2.75263765009E+00  2.82062780005E+00  2.89029730671E+00
  2.96168765019E+00  3.03484133515E+00  3.10980191613E+00  3.18661402346E+00
  3.26532338983E+00  3.34597687756E+00  3.42862250644E+00  3.51330948235E+00
  3.60008822656E+00  3.68901040576E+00  3.78012896278E+00  3.87349814816E+00
  3.96917355242E+00  4.06721213917E+00  4.16767227900E+00  4.27061378429E+00
  4.37609794477E+00  4.48418756400E+00  4.59494699683E+00  4.70844218766E+00
  4.82474070969E+00  4.94391180522E+00  5.06602642681E+00  5.19115727955E+00
  5.31937886436E+00  5.45076752231E+00  5.58540148011E+00  5.72336089667E+00
  5.86472791081E+00  6.00958669021E+00  6.15802348146E+00  6.31012666145E+00
  6.46598678999E+00  6.62569666370E+00  6.78935137129E+00  6.95704835016E+00
  7.12888744441E+00  7.30497096429E+00  7.48540374711E+00  7.67029321966E+00
  7.85974946219E+00  8.05388527390E+00  8.25281624017E+00  8.45666080130E+00
  8.66554032309E+00  8.87957916907E+00  9.09890477455E+00  9.32364772248E+00
  9.55394182123E+00  9.78992418421E+00  1.00317353116E+01  1.02795191738E+01
  1.05334232973E+01  1.07935988528E+01  1.10602007445E+01  1.13333877028E+01
  1.16133223791E+01  1.19001714419E+01  1.21941056765E+01  1.24953000867E+01
  1.28039339988E+01  1.31201911686E+01  1.34442598905E+01  1.37763331098E+01
  1.41166085376E+01  1.44652887685E+01  1.48225814010E+01  1.51886991616E+01
  1.55638600309E+01  1.59482873737E+01  1.63422100718E+01  1.67458626606E+01
  1.71594854683E+01  1.75833247594E+01  1.80176328809E+01  1.84626684131E+01
  1.89186963229E+01  1.93859881221E+01  1.98648220287E+01  2.03554831328E+01
  2.08582635662E+01  2.13734626763E+01  2.19013872044E+01  2.24423514683E+01
  2.29966775496E+01  2.35646954851E+01  2.41467434635E+01  2.47431680271E+01
  2.53543242774E+01  2.59805760870E+01  2.66222963164E+01  2.72798670354E+01
  2.79536797512E+01  2.86441356410E+01  2.93516457913E+01  3.00766314424E+01
  3.08195242390E+01  3.15807664877E+01  3.23608114200E+01  3.31601234620E+01
  3.39791785115E+01  3.48184642208E+01  3.56784802870E+01  3.65597387501E+01
  3.74627642973E+01  3.83880945754E+01  3.93362805114E+01  4.03078866400E+01
  4.13034914401E+01  4.23236876786E+01  4.33690827643E+01  4.44402991086E+01
  4.55379744965E+01  4.66627624666E+01  4.78153326995E+01  4.89963714172E+01
  5.02065817912E+01  5.14466843615E+01  5.27174174652E+01  5.40195376766E+01
  5.53538202572E+01  5.67210596175E+01  5.81220697901E+01  5.95576849139E+01
  6.10287597313E+01  6.25361700966E+01  6.40808134980E+01  6.56636095914E+01
  6.72855007483E+01  6.89474526168E+01  7.06504546965E+01  7.23955209275E+01
  7.41836902944E+01  7.60160274446E+01  7.78936233225E+01
  </PP_R>
  <PP_RAB>
  3.11223046219E-06  3.18910255460E-06  3.26787338770E-06  3.34858986038E-06
  3.43130002993E-06  3.51605314067E-06  3.60289965324E-06  3.69189127468E-06
  3.78308098916E-06  3.87652308959E-06  3.97227320991E-06  4.07038835819E-06
  4.17092695064E-06  4.27394884632E-06  4.37951538282E-06  4.48768941278E-06
  4.59853534127E-06  4.71211916420E-06  4.82850850756E-06  4.94777266770E-06
  5.06998265259E-06  5.19521122411E-06  5.32353294134E-06  5.45502420499E-06
  5.58976330286E-06  5.72783045644E-06  5.86930786871E-06  6.01427977307E-06
  6.16283248346E-06  6.31505444581E-06  6.47103629062E-06  6.63087088700E-06
  6.79465339790E-06  6.96248133683E-06  7.13445462585E-06  7.31067565511E-06
  7.49124934379E-06  7.67628320258E-06  7.86588739769E-06  8.06017481641E-06
  8.25926113438E-06  8.46326488439E-06  8.67230752704E-06  8.88651352296E-06
  9.10601040697E-06  9.33092886403E-06  9.56140280697E-06  9.79756945630E-06
  1.00395694219E-05  1.02875467866E-05  1.05416491922E-05  1.08020279273E-05
  1.10688380171E-05  1.13422383161E-05  1.16223916025E-05  1.19094646751E-05
  1.22036284526E-05  1.25050580753E-05  1.28139330098E-05  1.31304371551E-05
  1.34547589529E-05  1.37870914990E-05  1.41276326590E-05  1.44765851857E-05
  1.48341568398E-05  1.52005605137E-05  1.55760143584E-05  1.59607419131E-05
  1.63549722383E-05  1.67589400526E-05  1.71728858719E-05  1.75970561530E-05
  1.80317034399E-05  1.84770865149E-05  1.89334705518E-05  1.94011272744E-05
  1.98803351181E-05  2.03713793955E-05  2.08745524666E-05  2.13901539125E-05
  2.19184907142E-05  2.24598774348E-05  2.30146364075E-05  2.35830979267E-05
  2.41656004455E-05  2.47624907765E-05  2.53741242987E-05  2.60008651689E-05
  2.66430865386E-05  2.73011707761E-05  2.79755096942E-05  2.86665047837E-05
  2.93745674518E-05  3.01001192679E-05  3.08435922138E-05  3.16054289415E-05
  3.23860830363E-05  3.31860192873E-05  3.40057139637E-05  3.48456550986E-05
  3.57063427796E-05  3.65882894462E-05  3.74920201955E-05  3.84180730944E-05
  3.93669994998E-05  4.03393643875E-05  4.13357466878E-05  4.23567396310E-05
  4.34029510999E-05  4.44750039921E-05  4.55735365907E-05  4.66992029445E-05
  4.78526732572E-05  4.90346342866E-05  5.02457897535E-05  5.14868607604E-05
  5.27585862212E-05  5.40617233009E-05  5.53970478664E-05  5.67653549487E-05
  5.81674592159E-05  5.96041954586E-05  6.10764190864E-05  6.25850066378E-05
  6.41308563018E-05  6.57148884525E-05  6.73380461972E-05  6.90012959383E-05
  7.07056279480E-05  7.24520569583E-05  7.42416227652E-05  7.60753908475E-05
  7.79544530014E-05  7.98799279905E-05  8.18529622119E-05  8.38747303785E-05
  8.59464362189E-05  8.80693131935E-05  9.02446252294E-05  9.24736674725E-05
  9.47577670591E-05  9.70982839055E-05  9.94966115179E-05  1.01954177822E-04
  1.04472446015E-04  1.07052915431E-04  1.09697122442E-04  1.12406641367E-04
  1.15183085408E-04  1.18028107618E-04  1.20943401876E-04  1.23930703903E-04
  1.26991792289E-04  1.30128489558E-04  1.33342663251E-04  1.36636227033E-04
  1.40011141841E-04  1.43469417044E-04  1.47013111645E-04  1.50644335503E-04
  1.54365250590E-04  1.58178072279E-04  1.62085070664E-04  1.66088571910E-04
  1.70190959636E-04  1.74394676339E-04  1.78702224845E-04  1.83116169798E-04
  1.87639139192E-04  1.92273825930E-04  1.97022989431E-04  2.01889457270E-04
  2.06876126864E-04  2.11985967198E-04  2.17222020588E-04  2.22587404496E-04
  2.28085313387E-04  2.33719020628E-04  2.39491880437E-04  2.45407329884E-04
  2.51468890932E-04  2.57680172538E-04  2.64044872800E-04  2.70566781158E-04
  2.77249780653E-04  2.84097850235E-04  2.91115067136E-04  2.98305609294E-04
  3.05673757843E-04  3.13223899662E-04  3.20960529984E-04  3.28888255074E-04
  3.37011794975E-04  3.45335986311E-04  3.53865785173E-04  3.62606270066E-04
  3.71562644937E-04  3.80740242267E-04  3.90144526251E-04  3.99781096049E-04
  4.09655689122E-04  4.19774184643E-04  4.30142607004E-04  4.40767129397E-04
  4.51654077493E-04  4.62809933207E-04  4.74241338557E-04  4.85955099619E-04
  4.97958190580E-04  5.10257757887E-04  5.22861124507E-04  5.35775794282E-04
  5.49009456401E-04  5.62569989974E-04  5.76465468727E-04  5.90704165804E-04
  6.05294558700E-04  6.20245334300E-04  6.35565394057E-04  6.51263859290E-04
  6.67350076614E-04  6.83833623507E-04  7.00724314007E-04  7.18032204563E-04
  7.35767600016E-04  7.53941059737E-04  7.72563403912E-04  7.91645719989E-04
  8.11199369272E-04  8.31235993693E-04  8.51767522738E-04  8.72806180549E-04
  8.94364493209E-04  9.16455296191E-04  9.39091742007E-04  9.62287308035E-04
  9.86055804543E-04  1.01041138292E-03  1.03536854407E-03  1.06094214711E-03
  1.08714741815E-03  1.11399995937E-03  1.14151575837E-03  1.16971119760E-03
  1.19860306418E-03  1.22820855987E-03  1.25854531130E-03  1.28963138049E-03
  1.32148527558E-03  1.35412596189E-03  1.38757287315E-03  1.42184592312E-03
  1.45696551742E-03  1.49295256570E-03  1.52982849407E-03  1.56761525787E-03
  1.60633535474E-03  1.64601183801E-03  1.68666833040E-03  1.72832903816E-03
  1.77101876541E-03  1.81476292891E-03  1.85958757326E-03  1.90551938632E-03
  1.95258571516E-03  2.00081458232E-03  2.05023470251E-03  2.10087549966E-03
  2.15276712450E-03  2.20594047248E-03  2.26042720215E-03  2.31625975404E-03
  2.37347136996E-03  2.43209611280E-03  2.49216888679E-03  2.55372545829E-03
  2.61680247711E-03  2.68143749830E-03  2.74766900450E-03  2.81553642891E-03
  2.88508017871E-03  2.95634165912E-03  3.02936329810E-03  3.10418857157E-03
  3.18086202928E-03  3.25942932141E-03  3.33993722565E-03  3.42243367512E-03
  3.50696778690E-03  3.59358989123E-03  3.68235156154E-03  3.77330564512E-03
  3.86650629455E-03  3.96200900002E-03  4.05987062233E-03  4.16014942670E-03
  4.26290511754E-03  4.36819887394E-03  4.47609338613E-03  4.58665289276E-03
  4.69994321921E-03  4.81603181673E-03  4.93498780260E-03  5.05688200133E-03
  5.18178698676E-03  5.30977712533E-03  5.44092862033E-03  5.57531955725E-03
  5.71302995031E-03  5.85414179009E-03  5.99873909230E-03  6.14690794788E-03
  6.29873657419E-03  6.45431536758E-03  6.61373695716E-03  6.77709626000E-03
  6.94449053762E-03  7.11601945390E-03  7.29178513441E-03  7.47189222723E-03
  7.65644796524E-03  7.84556222998E-03  8.03934761706E-03  8.23791950321E-03
  8.44139611494E-03  8.64989859897E-03  8.86355109437E-03  9.08248080640E-03
  9.30681808232E-03  9.53669648895E-03  9.77225289223E-03  1.00136275387E-02
  1.02609641389E-02  1.05144099531E-02  1.07741158789E-02  1.10402365412E-02
  1.13129303837E-02  1.15923597642E-02  1.18786910504E-02  1.21720947193E-02
  1.24727454589E-02  1.27808222717E-02  1.30965085818E-02  1.34199923438E-02
  1.37514661547E-02  1.40911273687E-02  1.44391782147E-02  1.47958259166E-02
  1.51612828168E-02  1.55357665023E-02  1.59194999349E-02  1.63127115833E-02
  1.67156355594E-02  1.71285117578E-02  1.75515859982E-02  1.79851101723E-02
  1.84293423936E-02  1.88845471507E-02  1.93509954653E-02  1.98289650533E-02
  2.03187404902E-02  2.08206133803E-02  2.13348825308E-02  2.18618541293E-02
  2.24018419263E-02  2.29551674218E-02  2.35221600572E-02  2.41031574106E-02
  2.46985053986E-02  2.53085584820E-02  2.59336798765E-02  2.65742417694E-02
  2.72306255411E-02  2.79032219920E-02  2.85924315752E-02  2.92986646351E-02
  3.00223416516E-02  3.07638934904E-02  3.15237616596E-02  3.23023985726E-02
  3.31002678173E-02  3.39178444324E-02  3.47556151899E-02  3.56140788851E-02
  3.64937466335E-02  3.73951421754E-02  3.83188021871E-02  3.92652766011E-02
  4.02351289332E-02  4.12289366178E-02  4.22472913523E-02  4.32907994487E-02
  4.43600821951E-02  4.54557762253E-02  4.65785338980E-02  4.77290236853E-02
  4.89079305704E-02  5.01159564554E-02  5.13538205799E-02  5.26222599482E-02
  5.39220297689E-02  5.52539039042E-02  5.66186753307E-02  5.80171566113E-02
  5.94501803796E-02  6.09185998350E-02  6.24232892509E-02  6.39651444954E-02
  6.55450835645E-02  6.71640471285E-02  6.88229990926E-02  7.05229271702E-02
  7.22648434713E-02  7.40497851050E-02  7.58788147971E-02  7.77530215226E-02
  7.96735211542E-02  8.16414571267E-02  8.36580011178E-02  8.57243537454E-02
  8.78417452829E-02  9.00114363914E-02  9.22347188702E-02  9.45129164263E-02
  9.68473854621E-02  9.92395158830E-02  1.01690731925E-01  1.04202493004E-01
  1.06776294581E-01  1.09413669057E-01  1.12116186683E-01  1.14885456494E-01
  1.17723127269E-01  1.20630888513E-01  1.23610471459E-01  1.26663650104E-01
  1.29792242262E-01  1.32998110646E-01  1.36283163979E-01  1.39649358129E-01
  1.43098697275E-01  1.46633235097E-01  1.50255076004E-01  1.53966376382E-01
  1.57769345878E-01  1.61666248721E-01  1.65659405065E-01  1.69751192370E-01
  1.73944046821E-01  1.78240464778E-01  1.82643004258E-01  1.87154286463E-01
  1.91776997339E-01  1.96513889173E-01  2.01367782236E-01  2.06341566457E-01
  2.11438203148E-01  2.16660726766E-01  2.22012246717E-01  2.27495949211E-01
  2.33115099157E-01  2.38873042106E-01  2.44773206246E-01  2.50819104440E-01
  2.57014336320E-01  2.63362590427E-01  2.69867646410E-01  2.76533377277E-01
  2.83363751695E-01  2.90362836362E-01  2.97534798420E-01  3.04883907941E-01
  3.12414540468E-01  3.20131179617E-01  3.28038419754E-01  3.36140968722E-01
  3.44443650649E-01  3.52951408820E-01  3.61669308618E-01  3.70602540541E-01
  3.79756423292E-01  3.89136406947E-01  3.98748076199E-01  4.08597153681E-01
  4.18689503377E-01  4.29031134110E-01  4.39628203123E-01  4.50487019740E-01
  4.61614049128E-01  4.73015916141E-01  4.84699409270E-01  4.96671484679E-01
  5.08939270350E-01  5.21510070328E-01  5.34391369065E-01  5.47590835881E-01
  5.61116329527E-01  5.74975902867E-01  5.89177807667E-01  6.03730499517E-01
  6.18642642855E-01  6.33923116133E-01  6.49581017102E-01  6.65625668224E-01
  6.82066622229E-01  6.98913667799E-01  7.16176835393E-01  7.33866403227E-01
  7.51992903387E-01  7.70567128101E-01  7.89600136165E-01  8.09103259528E-01
  8.29088110038E-01  8.49566586356E-01  8.70550881039E-01  8.92053487801E-01
  9.14087208950E-01  9.36665163011E-01  9.59800792537E-01  9.83507872113E-01
  1.00780051655E+00  1.03269318931E+00  1.05820071109E+00  1.08433826865E+00
  1.11112142389E+00  1.13856612306E+00  1.16668870630E+00  1.19550591734E+00
  1.22503491350E+00  1.25529327587E+00  1.28629901978E+00  1.31807060557E+00
  1.35062694953E+00  1.38398743518E+00  1.41817192483E+00  1.45320077137E+00
  1.48909483042E+00  1.52587547274E+00  1.56356459691E+00  1.60218464246E+00
  1.64175860312E+00  1.68231004062E+00  1.72386309862E+00  1.76644251716E+00
  1.81007364733E+00  1.85478246642E+00  1.90059559334E+00
  </PP_RAB>
</PP_MESH>


<PP_NLCC>
  3.92886573109E+00  3.92886573109E+00  3.92886573109E+00  3.92886573109E+00
  3.92886573109E+00  3.92886573109E+00  3.92886573109E+00  3.92886573109E+00
  3.92886573108E+00  3.92886573108E+00  3.92886573108E+00  3.92886573108E+00
  3.92886573108E+00  3.92886573108E+00  3.92886573108E+00  3.92886573107E+00
  3.92886573107E+00  3.92886573107E+00  3.92886573107E+00  3.92886573106E+00
  3.92886573106E+00  3.92886573106E+00  3.92886573106E+00  3.92886573105E+00
  3.92886573105E+00  3.92886573104E+00  3.92886573104E+00  3.92886573104E+00
  3.92886573103E+00  3.92886573102E+00  3.92886573102E+00  3.92886573101E+00
  3.92886573101E+00  3.92886573100E+00  3.92886573099E+00  3.92886573098E+00
  3.92886573097E+00  3.92886573096E+00  3.92886573095E+00  3.92886573094E+00
  3.92886573093E+00  3.92886573092E+00  3.92886573090E+00  3.92886573089E+00
  3.92886573087E+00  3.92886573085E+00  3.92886573084E+00  3.92886573082E+00
  3.92886573079E+00  3.92886573077E+00  3.92886573075E+00  3.92886573072E+00
  3.92886573069E+00  3.92886573066E+00  3.92886573063E+00  3.92886573059E+00
  3.92886573055E+00  3.92886573051E+00  3.92886573046E+00  3.92886573041E+00
  3.92886573036E+00  3.92886573031E+00  3.92886573025E+00  3.92886573018E+00
  3.92886573011E+00  3.92886573004E+00  3.92886572996E+00  3.92886572987E+00
  3.92886572977E+00  3.92886572967E+00  3.92886572957E+00  3.92886572945E+00
  3.92886572932E+00  3.92886572919E+00  3.92886572904E+00  3.92886572889E+00
  3.92886572872E+00  3.92886572854E+00  3.92886572834E+00  3.92886572813E+00
  3.92886572791E+00  3.92886572766E+00  3.92886572740E+00  3.92886572712E+00
  3.92886572682E+00  3.92886572649E+00  3.92886572614E+00  3.92886572577E+00
  3.92886572536E+00  3.92886572492E+00  3.92886572445E+00  3.92886572395E+00
  3.92886572340E+00  3.92886572282E+00  3.92886572219E+00  3.92886572151E+00
  3.92886572078E+00  3.92886572000E+00  3.92886571915E+00  3.92886571824E+00
  3.92886571727E+00  3.92886571621E+00  3.92886571508E+00  3.92886571386E+00
  3.92886571255E+00  3.92886571114E+00  3.92886570962E+00  3.92886570799E+00
  3.92886570623E+00  3.92886570433E+00  3.92886570230E+00  3.92886570011E+00
  3.92886569775E+00  3.92886569521E+00  3.92886569248E+00  3.92886568954E+00
  3.92886568637E+00  3.92886568297E+00  3.92886567930E+00  3.92886567536E+00
  3.92886567112E+00  3.92886566655E+00  3.92886566163E+00  3.92886565634E+00
  3.92886565065E+00  3.92886564452E+00  3.92886563793E+00  3.92886563083E+00
  3.92886562319E+00  3.92886561497E+00  3.92886560613E+00  3.92886559660E+00
  3.92886558636E+00  3.92886557533E+00  3.92886556345E+00  3.92886555068E+00
  3.92886553692E+00  3.92886552212E+00  3.92886550619E+00  3.92886548904E+00
  3.92886547058E+00  3.92886545071E+00  3.92886542933E+00  3.92886540631E+00
  3.92886538154E+00  3.92886535487E+00  3.92886532616E+00  3.92886529526E+00
  3.92886526200E+00  3.92886522619E+00  3.92886518765E+00  3.92886514616E+00
  3.92886510150E+00  3.92886505342E+00  3.92886500167E+00  3.92886494595E+00
  3.92886488597E+00  3.92886482140E+00  3.92886475188E+00  3.92886467704E+00
  3.92886459647E+00  3.92886450973E+00  3.92886441634E+00  3.92886431580E+00
  3.92886420754E+00  3.92886409099E+00  3.92886396550E+00  3.92886383039E+00
  3.92886368491E+00  3.92886352827E+00  3.92886335961E+00  3.92886317799E+00
  3.92886298243E+00  3.92886277185E+00  3.92886254509E+00  3.92886230091E+00
  3.92886203795E+00  3.92886175477E+00  3.92886144982E+00  3.92886112140E+00
  3.92886076771E+00  3.92886038679E+00  3.92885997654E+00  3.92885953469E+00
  3.92885905879E+00  3.92885854621E+00  3.92885799411E+00  3.92885739943E+00
  3.92885675887E+00  3.92885606887E+00  3.92885532560E+00  3.92885452492E+00
  3.92885366238E+00  3.92885273317E+00  3.92885173211E+00  3.92885065362E+00
  3.92884949167E+00  3.92884823977E+00  3.92884689092E+00  3.92884543757E+00
  3.92884387157E+00  3.92884218413E+00  3.92884036580E+00  3.92883840634E+00
  3.92883629474E+00  3.92883401910E+00  3.92883156661E+00  3.92882892343E+00
  3.92882607464E+00  3.92882300413E+00  3.92881969452E+00  3.92881612707E+00
  3.92881228155E+00  3.92880813614E+00  3.92880366727E+00  3.92879884952E+00
  3.92879365545E+00  3.92878805544E+00  3.92878201754E+00  3.92877550723E+00
  3.92876848726E+00  3.92876091742E+00  3.92875275429E+00  3.92874395101E+00
  3.92873445695E+00  3.92872421748E+00  3.92871317357E+00  3.92870126151E+00
  3.92868841247E+00  3.92867455212E+00  3.92865960017E+00  3.92864346992E+00
  3.92862606770E+00  3.92860729232E+00  3.92858703448E+00  3.92856517608E+00
  3.92854158955E+00  3.92851613703E+00  3.92848866957E+00  3.92845902622E+00
  3.92842703306E+00  3.92839250214E+00  3.92835523034E+00  3.92831499813E+00
  3.92827156824E+00  3.92822468422E+00  3.92817406890E+00  3.92811942262E+00
  3.92806042152E+00  3.92799671545E+00  3.92792792591E+00  3.92785364371E+00
  3.92777342646E+00  3.92768679587E+00  3.92759323485E+00  3.92749218431E+00
  3.92738303975E+00  3.92726514758E+00  3.92713780110E+00  3.92700023621E+00
  3.92685162670E+00  3.92669107922E+00  3.92651762783E+00  3.92633022810E+00
  3.92612775075E+00  3.92590897476E+00  3.92567257995E+00  3.92541713896E+00
  3.92514110859E+00  3.92484282044E+00  3.92452047088E+00  3.92417211008E+00
  3.92379563035E+00  3.92338875346E+00  3.92294901700E+00  3.92247375966E+00
  3.92196010544E+00  3.92140494655E+00  3.92080492506E+00  3.92015641316E+00
  3.91945549187E+00  3.91869792824E+00  3.91787915072E+00  3.91699422285E+00
  3.91603781487E+00  3.91500417338E+00  3.91388708874E+00  3.91267986011E+00
  3.91137525809E+00  3.90996548467E+00  3.90844213045E+00  3.90679612888E+00
  3.90501770747E+00  3.90309633572E+00  3.90102066966E+00  3.89877849280E+00
  3.89635665343E+00  3.89374099796E+00  3.89091630033E+00  3.88786618720E+00
  3.88457305897E+00  3.88101800636E+00  3.87718072262E+00  3.87303941117E+00
  3.86857068884E+00  3.86374948459E+00  3.85854893384E+00  3.85294026859E+00
  3.84689270348E+00  3.84037331806E+00  3.83334693585E+00  3.82577600034E+00
  3.81762044896E+00  3.80883758544E+00  3.79938195177E+00  3.78920520070E+00
  3.77825597028E+00  3.76647976188E+00  3.75381882371E+00  3.74021204195E+00
  3.72559484189E+00  3.70989910225E+00  3.69305308578E+00  3.67498138996E+00
  3.65560492226E+00  3.63484090458E+00  3.61260291264E+00  3.58880095613E+00
  3.56334160672E+00  3.53612818132E+00  3.50706098913E+00  3.47603765143E+00
  3.44295350440E+00  3.40770209557E+00  3.37017578588E+00  3.33026646949E+00
  3.28786642495E+00  3.24286931117E+00  3.19517132268E+00  3.14467251851E+00