<PP_INFO>
Generated using Fritz-Haber code
Author: unknown    Generation date: as well
Info: automatically converted from FHI format
    1        The Pseudo was generated with a Scalar-Relativistic Calculation
nl pn  l   occ               Rcut            Rcut US             E pseu
3s  0  0  2.00      0.00000000000      0.00000000000      0.00000000000
3p  0  1  2.00      0.00000000000      0.00000000000      0.00000000000
3d  0  2  0.00      0.00000000000      0.00000000000      0.00000000000
</PP_INFO>


<PP_HEADER>
   0                   Version Number
  Si                   Element
   NC                  Norm - Conserving pseudopotential
    F                  Nonlinear Core Correction
SLA  PW   PBE  PBE     PBE  Exchange-Correlation functional
    4.00000000000      Z valence
    0.00000000000      Total energy
    0.00000    0.00000 Suggested cutoff for wfc and rho
    1                  Max angular momentum component
  800                  Number of points in mesh
    3    2             Number of Wavefunctions, Number of Projectors
 Wavefunctions         nl  l   occ
                       3s  0  2.00
                       3p  1  2.00
                       3d  2  0.00
</PP_HEADER>


<PP_MESH>
  <PP_R>
  9.99999831590E-08  1.02745321303E-07  1.05566028275E-07  1.08464173205E-07
  1.11441882027E-07  1.14501339038E-07  1.17644788503E-07  1.20874536301E-07
  1.24192951611E-07  1.27602468659E-07  1.31105588494E-07  1.34704880830E-07
  1.38402985928E-07  1.42202616534E-07  1.46106559865E-07  1.50117679660E-07
  1.54238918275E-07  1.58473298845E-07  1.62823927499E-07  1.67293995641E-07
  1.71886782290E-07  1.76605656484E-07  1.81454079753E-07  1.86435608658E-07
  1.91553897399E-07  1.96812700496E-07  2.02215875546E-07  2.07767386046E-07
  2.13471304307E-07  2.19331814438E-07  2.25353215416E-07  2.31539924240E-07
  2.37896479170E-07  2.44427543057E-07  2.51137906761E-07  2.58032492671E-07
  2.65116358310E-07  2.72394700047E-07  2.79872856910E-07  2.87556314500E-07
  2.95450709018E-07  3.03561831396E-07  3.11895631548E-07  3.20458222733E-07
  3.29255886040E-07  3.38295074994E-07  3.47582420292E-07  3.57124734666E-07
  3.66929017881E-07  3.77002461867E-07  3.87352456001E-07  3.97986592519E-07
  4.08912672092E-07  4.20138709547E-07  4.31672939741E-07  4.43523823610E-07
  4.55700054369E-07  4.68210563892E-07  4.81064529262E-07  4.94271379507E-07
  5.07840802510E-07  5.21782752121E-07  5.36107455458E-07  5.50825420405E-07
  5.65947443327E-07  5.81484616981E-07  5.97448338663E-07  6.13850318558E-07
  6.30702588341E-07  6.48017509991E-07  6.65807784870E-07  6.84086463034E-07
  7.02866952806E-07  7.22163030615E-07  7.41988851097E-07  7.62358957482E-07
  7.83288292263E-07  8.04792208152E-07  8.26886479345E-07  8.49587313095E-07
  8.72911361598E-07  8.96875734209E-07  9.21498009994E-07  9.46796250621E-07
  9.72789013615E-07  9.99495365967E-07  1.02693489812E-06  1.05512773834E-06
  1.08409456749E-06  1.11385663419E-06  1.14443577039E-06  1.17585440742E-06
  1.20813559242E-06  1.24130300526E-06  1.27538097589E-06  1.31039450220E-06
  1.34636926837E-06  1.38333166368E-06  1.42130880190E-06  1.46032854116E-06
  1.50041950438E-06  1.54161110030E-06  1.58393354500E-06  1.62741788411E-06
  1.67209601557E-06  1.71800071303E-06  1.76516564987E-06  1.81362542392E-06
  1.86341558286E-06  1.91457265026E-06  1.96713415238E-06  2.02113864571E-06
  2.07662574524E-06  2.13363615354E-06  2.19221169059E-06  2.25239532447E-06
  2.31423120288E-06  2.37776468554E-06  2.44304237743E-06  2.51011216299E-06
  2.57902324127E-06  2.64982616199E-06  2.72257286262E-06  2.79731670651E-06
  2.87411252200E-06  2.95301664267E-06  3.03408694862E-06  3.11738290897E-06
  3.20296562549E-06  3.29089787736E-06  3.38124416729E-06  3.47407076880E-06
  3.56944577484E-06  3.66743914774E-06  3.76812277053E-06  3.87157049970E-06
  3.97785821930E-06  4.08706389671E-06  4.19926763975E-06  4.31455175546E-06
  4.43300081050E-06  4.55470169318E-06  4.67974367718E-06  4.80821848704E-06
  4.94022036545E-06  5.07584614240E-06  5.21519530616E-06  5.35837007630E-06
  5.50547547869E-06  5.65661942249E-06  5.81191277932E-06  5.97146946463E-06
  6.13540652123E-06  6.30384420513E-06  6.47690607379E-06  6.65471907674E-06
  6.83741364872E-06  7.02512380531E-06  7.21798724130E-06  7.41614543165E-06
  7.61974373531E-06  7.82893150180E-06  8.04386218080E-06  8.26469343471E-06
  8.49158725429E-06  8.72471007750E-06  8.96423291157E-06  9.21033145847E-06
  9.46318624380E-06  9.72298274916E-06  9.98991154829E-06  1.02641684468E-05
  1.05459546258E-05  1.08354767896E-05  1.11329473171E-05  1.14385844178E-05
  1.17526122919E-05  1.20752612944E-05  1.24067681046E-05  1.27473758992E-05
  1.30973345311E-05  1.34569007124E-05  1.38263382029E-05  1.42059180035E-05
  1.45959185549E-05  1.49966259419E-05  1.54083341036E-05  1.58313450484E-05
  1.62659690760E-05  1.67125250047E-05  1.71713404058E-05  1.76427518433E-05
  1.81271051209E-05  1.86247555360E-05  1.91360681401E-05  1.96614180066E-05
  2.02011905057E-05  2.07557815876E-05  2.13255980727E-05  2.19110579496E-05
  2.25125906827E-05  2.31306375260E-05  2.37656518480E-05  2.44180994633E-05
  2.50884589748E-05  2.57772221248E-05  2.64848941556E-05  2.72119941797E-05
  2.79590555616E-05  2.87266263079E-05  2.95152694703E-05  3.03255635579E-05
  3.11581029620E-05  3.20134983917E-05  3.28923773223E-05  3.37953844556E-05
  3.47231821923E-05  3.56764511185E-05  3.66558905045E-05  3.76622188181E-05
  3.86961742514E-05  3.97585152624E-05  4.08500211313E-05  4.19714925322E-05
  4.31237521205E-05  4.43076451361E-05  4.55240400237E-05  4.67738290697E-05
  4.80579290569E-05  4.93772819369E-05  5.07328555208E-05  5.21256441896E-05
  5.35566696235E-05  5.50269815511E-05  5.65376585196E-05  5.80898086862E-05
  5.96845706306E-05  6.13231141903E-05  6.30066413189E-05  6.47363869678E-05
  6.65136199917E-05  6.83396440800E-05  7.02157987125E-05  7.21434601425E-05
  7.41240424059E-05  7.61589983589E-05  7.82498207432E-05  8.03980432817E-05
  8.26052418028E-05  8.48730353971E-05  8.72030876045E-05  8.95971076346E-05
  9.20568516209E-05  9.45841239085E-05  9.71807783778E-05  9.98487198048E-05
  1.02589905258E-04  1.05406345533E-04  1.08300106631E-04  1.11273311269E-04
  1.14328140443E-04  1.17466835020E-04  1.20691697392E-04  1.24005093156E-04
  1.27409452852E-04  1.30907273750E-04  1.34501121675E-04  1.38193632894E-04
  1.41987516050E-04  1.45885554145E-04  1.49890606584E-04  1.54005611274E-04
  1.58233586777E-04  1.62577634523E-04  1.67040941090E-04  1.71626780534E-04
  1.76338516799E-04  1.81179606179E-04  1.86153599855E-04  1.91264146500E-04
  1.96514994954E-04  2.01909996978E-04  2.07453110076E-04  2.13148400397E-04
  2.19000045723E-04  2.25012338526E-04  2.31189689126E-04  2.37536628916E-04
  2.44057813694E-04  2.50758027076E-04  2.57642184002E-04  2.64715334347E-04
  2.71982666618E-04  2.79449511768E-04  2.87121347100E-04  2.95003800290E-04
  3.03102653510E-04  3.11423847675E-04  3.19973486795E-04  3.28757842459E-04
  3.37783358430E-04  3.47056655376E-04  3.56584535723E-04  3.66373988647E-04
  3.76432195202E-04  3.86766533584E-04  3.97384584548E-04  4.08294136965E-04
  4.19503193535E-04  4.31019976663E-04  4.42852934485E-04  4.55010747066E-04
  4.67502332769E-04  4.80336854797E-04  4.93523727914E-04  5.07072625349E-04
  5.20993485896E-04  5.35296521202E-04  5.49992223258E-04  5.65091372097E-04
  5.80605043697E-04  5.96544618114E-04  6.12921787821E-04  6.29748566290E-04
  6.47037296805E-04  6.64800661513E-04  6.83051690730E-04  7.01803772499E-04
  7.21070662408E-04  7.40866493684E-04  7.61205787558E-04  7.82103463920E-04
  8.03574852258E-04  8.25635702910E-04  8.48302198612E-04  8.71590966371E-04
  8.95519089662E-04  9.20104120960E-04  9.45364094614E-04  9.71317540076E-04
  9.97983495497E-04  1.02538152169E-03  1.05353171647E-03  1.08245472941E-03
  1.11217177700E-03  1.14270465816E-03  1.17407577030E-03  1.20630812569E-03
  1.23942536838E-03  1.27345179152E-03  1.30841235519E-03  1.34433270471E-03
  1.38123918945E-03  1.41915888217E-03  1.45811959885E-03  1.49814991913E-03
  1.53927920725E-03  1.58153763359E-03  1.62495619682E-03  1.66956674663E-03
  1.71540200709E-03  1.76249560065E-03  1.81088207281E-03  1.86059691748E-03
  1.91167660296E-03  1.96415859878E-03  2.01808140309E-03  2.07348457096E-03
  2.13040874339E-03  2.18889567710E-03  2.24898827518E-03  2.31073061855E-03
  2.37416799832E-03  2.43934694896E-03  2.50631528250E-03  2.57512212355E-03
  2.64581794538E-03  2.71845460689E-03  2.79308539072E-03  2.86976504227E-03
  2.94854980989E-03  3.02949748616E-03  3.11266745023E-03  3.19812071144E-03
  3.28591995401E-03  3.37612958309E-03  3.46881577194E-03  3.56404651052E-03
  3.66189165533E-03  3.76242298068E-03  3.86571423131E-03  3.97184117652E-03
  4.08088166574E-03  4.19291568559E-03  4.30802541865E-03  4.42629530365E-03
  4.54781209747E-03  4.67266493873E-03  4.80094541325E-03  4.93274762117E-03
  5.06816824598E-03  5.20730662548E-03  5.35026482463E-03  5.49714771042E-03
  5.64806302877E-03  5.80312148363E-03  5.96243681810E-03  6.12612589797E-03
  6.29430879733E-03  6.46710888676E-03  6.64465292376E-03  6.82707114575E-03
  7.01449736562E-03  7.20706906985E-03  7.40492751943E-03  7.60821785341E-03
  7.81708919542E-03  8.03169476301E-03  8.25219198010E-03  8.47874259242E-03
  8.71151278617E-03  8.95067330990E-03  9.19639959983E-03  9.44887190846E-03
  9.70827543685E-03  9.97480047046E-03  1.02486425187E-02  1.05300024584E-02
  1.08190866812E-02  1.11161072447E-02  1.14212820285E-02  1.17348348934E-02
  1.20569958461E-02  1.23880012079E-02  1.27280937876E-02  1.30775230602E-02
  1.34365453496E-02  1.38054240165E-02  1.41844296518E-02  1.45738402752E-02
  1.49739415387E-02  1.53850269367E-02  1.58073980208E-02  1.62413646214E-02
  1.66872450746E-02  1.71453664560E-02  1.76160648205E-02  1.80996854490E-02
  1.85965831013E-02  1.91071222767E-02  1.96316774812E-02  2.01706335022E-02
  2.07243856909E-02  2.12933402523E-02  2.18779145429E-02  2.24785373771E-02
  2.30956493419E-02  2.37297031198E-02  2.43811638208E-02  2.50505093239E-02
  2.57382306275E-02  2.64448322095E-02  2.71708323976E-02  2.79167637492E-02
  2.86831734421E-02  2.94706236762E-02  3.02796920856E-02  3.11109721624E-02
  3.19650736920E-02  3.28426232007E-02  3.37442644149E-02  3.46706587334E-02
  3.56224857128E-02  3.66004435657E-02  3.76052496730E-02  3.86376411104E-02
  3.96983751885E-02  4.07882300088E-02  4.19080050341E-02  4.30585216756E-02
  4.42406238946E-02  4.54551788222E-02  4.67030773951E-02  4.79852350092E-02
  4.93025921914E-02  5.06561152889E-02  5.20467971785E-02  5.34756579950E-02
  5.49437458790E-02  5.64521377466E-02  5.80019400784E-02  5.95942897319E-02
  6.12303547753E-02  6.29113353439E-02  6.46384645210E-02  6.64130092422E-02
  6.82362712247E-02  7.01095879223E-02  7.20343335065E-02  7.40119198743E-02
  7.60437976840E-02  7.81314574198E-02  8.02764304842E-02  8.24802903223E-02
  8.47446535754E-02  8.70711812670E-02  8.94615800215E-02  9.19176033159E-02
  9.44410527660E-02  9.70337794481E-02  9.96976852567E-02  1.02434724300E-01
  1.05246904333E-01  1.08136288230E-01  1.11104995498E-01  1.14155203833E-01
  1.17289150716E-01  1.20509135052E-01  1.23817518861E-01  1.27216729008E-01
  1.30709258983E-01  1.34297670732E-01  1.37984596535E-01  1.41772740935E-01
  1.45664882725E-01  1.49663876987E-01  1.53772657182E-01  1.57994237306E-01
  1.62331714099E-01  1.66788269317E-01  1.71367172066E-01  1.76071781199E-01
  1.80905547784E-01  1.85872017629E-01  1.90974833887E-01  1.96217739731E-01
  2.01604581093E-01  2.07139309490E-01  2.12825984923E-01  2.18668778852E-01
  2.24671977259E-01  2.30839983788E-01  2.37177322983E-01  2.43688643597E-01
  2.50378722009E-01  2.57252465727E-01  2.64314916985E-01  2.71571256444E-01
  2.79026806992E-01  2.86687037647E-01  2.94557567572E-01  3.02644170193E-01
  3.10952777438E-01  3.19489484085E-01  3.28260552236E-01  3.37272415906E-01
  3.46531685750E-01  3.56045153903E-01  3.65819798970E-01  3.75862791141E-01
  3.86181497454E-01  3.96783487195E-01  4.07676537454E-01  4.18868638827E-01
  4.30368001279E-01  4.42183060169E-01  4.54322482432E-01  4.66795172940E-01
  4.79610281037E-01  4.92777207243E-01  5.06305610158E-01  5.20205413541E-01
  5.34486813593E-01  5.49160286434E-01  5.64236595789E-01  5.79726800886E-01
  5.95642264563E-01  6.11994661610E-01  6.28795987325E-01  6.46058566322E-01
  6.63795061564E-01  6.82018483658E-01  7.00742200394E-01  7.19979946554E-01
  7.39745833987E-01  7.60054361958E-01  7.80920427788E-01  8.02359337779E-01
  8.24386818442E-01  8.47019028037E-01  8.70272568418E-01  8.94164497222E-01
  9.18712340371E-01  9.43934104934E-01  9.69848292338E-01  9.96473911933E-01
  1.02383049494E+00  1.05193810879E+00  1.08081737180E+00  1.11048946838E+00
  1.14097616448E+00  1.17229982361E+00  1.20448342325E+00  1.23755057168E+00
  1.27152552530E+00  1.30643320644E+00  1.34229922163E+00  1.37914988038E+00
  1.41701221448E+00  1.45591399787E+00  1.49588376693E+00  1.53695084149E+00
  1.57914534631E+00  1.62249823316E+00  1.66704130354E+00  1.71280723204E+00
  1.75982959023E+00  1.80814287139E+00  1.85778251570E+00  1.90878493633E+00
  1.96118754610E+00  2.01502878495E+00  2.07034814812E+00  2.12718621512E+00
  2.18558467952E+00  2.24558637950E+00  2.30723532932E+00  2.37057675157E+00
  2.43565711033E+00  2.50252414530E+00  2.57122690680E+00  2.64181579174E+00
  2.71434258058E+00  2.78886047536E+00  2.86542413867E+00  2.94408973380E+00
  3.02491496587E+00  3.10795912425E+00  3.19328312596E+00  3.28094956044E+00
  3.37102273538E+00  3.46356872397E+00  3.55865541332E+00  3.65635255426E+00
  3.75673181252E+00  3.85986682132E+00  3.96583323533E+00  4.07470878621E+00
  4.18657333962E+00  4.30150895381E+00  4.41959993978E+00  4.54093292319E+00
  4.66559690783E+00  4.79368334097E+00  4.92528618040E+00  5.06050196340E+00
  5.19942987749E+00  5.34217183324E+00  5.48883253901E+00  5.63951957775E+00
  5.79434348595E+00  5.95341783466E+00  6.11685931289E+00  6.28478781312E+00
  6.45732651929E+00  6.63460199718E+00  6.81674428721E+00  7.00388699983E+00
  7.19616741360E+00  7.39372657580E+00  7.59670940596E+00  7.80526480211E+00
  8.01954575007E+00  8.23970943562E+00  8.46591735983E+00  8.69833545751E+00
  8.93713421895E+00  9.18248881499E+00  9.43457922547E+00  9.69359037132E+00
  9.95971225015E+00  1.02331400757E+01  1.05140744208E+01  1.08027213650E+01
  1.10992926452E+01  1.14040058113E+01  1.17170843855E+01  1.20387580267E+01
  1.23692626986E+01  1.27088408428E+01  1.30577415569E+01  1.34162207770E+01
  1.37845414655E+01  1.41629738041E+01  1.45517953918E+01  1.49512914487E+01
  1.53617550250E+01  1.57834872163E+01  1.62167973844E+01  1.66620033837E+01
  1.71194317952E+01  1.75894181655E+01  1.80723072531E+01  1.85684532812E+01
  1.90782201978E+01  1.96019819424E+01  2.01401227203E+01  2.06930372847E+01
  2.12611312262E+01  2.18448212699E+01  2.24445355818E+01  2.30607140822E+01
  2.36938087689E+01  2.43442840484E+01  2.50126170768E+01  2.56992981100E+01
  2.64048308626E+01  2.71297328783E+01  2.78745359089E+01  2.86397863046E+01
  2.94260454148E+01  3.02338900000E+01  3.10639126544E+01  3.19167222413E+01
  3.27929443389E+01  3.36932217001E+01  3.46182147232E+01  3.55686019369E+01
  3.65450804977E+01  3.75483667015E+01  3.85791965087E+01  3.96383260845E+01
  4.07265323535E+01  4.18446135694E+01  4.29933899005E+01  4.41737040317E+01
  4.53864217824E+01  4.66324327418E+01  4.79126509210E+01  4.92280154242E+01
  5.05794911369E+01  5.19680694341E+01  5.33947689074E+01  5.48606361121E+01
  5.63667463351E+01  5.79142043835E+01  5.95041453952E+01  6.11377356712E+01
  6.28161735318E+01  6.45406901950E+01  6.63125506799E+01  6.81330547347E+01
  7.00035377902E+01  7.19253719391E+01  7.38999669429E+01  7.59287712656E+01
  7.80132731367E+01  8.01550016424E+01  8.23555278476E+01  8.46164659483E+01
  8.69394744555E+01  8.93262574121E+01  9.17785656426E+01  9.42981980378E+01
  9.68870028739E+01  9.95468791685E+01  1.02279778074E+02  1.05087704308E+02
  1.07972717625E+02  1.10936934327E+02  1.13982528814E+02  1.17111735182E+02
  1.20326848861E+02  1.23630228297E+02  1.27024296684E+02  1.30511543740E+02
  1.34094527537E+02  1.37775876371E+02  1.41558290695E+02  1.45444545101E+02
  1.49437490348E+02  1.53540055464E+02  1.57755249883E+02  1.62086165662E+02
  1.66535979744E+02  1.71107956289E+02  1.75805449072E+02  1.80631903938E+02
  1.85590861333E+02  1.90685958899E+02  1.95920934146E+02  2.01299627190E+02
  2.06825983570E+02  2.12504057146E+02  2.18338013067E+02  2.24332130833E+02
  2.30490807427E+02  2.36818560548E+02  2.43320031919E+02  2.49999990692E+02
  </PP_R>
  <PP_RAB>
  2.70832954389E-09  2.78268236045E-09  2.85907641359E-09  2.93756774217E-09
  3.01821392349E-09  3.10107411556E-09  3.18620910047E-09  3.27368132900E-09
  3.36355496638E-09  3.45589593942E-09  3.55077198485E-09  3.64825269898E-09
  3.74840958880E-09  3.85131612437E-09  3.95704779279E-09  4.06568215353E-09
  4.17729889531E-09  4.29197989460E-09  4.40980927563E-09  4.53087347216E-09
  4.65526129080E-09  4.78306397626E-09  4.91437527817E-09  5.04929151996E-09
  5.18791166942E-09  5.33033741135E-09  5.47667322217E-09  5.62702644649E-09
  5.78150737593E-09  5.94022932997E-09  6.10330873908E-09  6.27086523018E-09
  6.44302171431E-09  6.61990447686E-09  6.80164327019E-09  6.98837140877E-09
  7.18022586702E-09  7.37734737979E-09  7.57988054555E-09  7.78797393250E-09
  8.00178018754E-09  8.22145614825E-09  8.44716295791E-09  8.67906618375E-09
  8.91733593839E-09  9.16214700458E-09  9.41367896349E-09  9.67211632638E-09
  9.93764866996E-09  1.02104707755E-08  1.04907827716E-08  1.07787902812E-08
  1.10747045721E-08  1.13787427123E-08  1.16911277289E-08  1.20120887720E-08
  1.23418612825E-08  1.26806871650E-08  1.30288149654E-08  1.33865000526E-08
  1.37540048066E-08  1.41315988105E-08  1.45195590484E-08  1.49181701085E-08
  1.53277243918E-08  1.57485223271E-08  1.61808725905E-08  1.66250923326E-08
  1.70815074108E-08  1.75504526283E-08  1.80322719800E-08  1.85273189043E-08
  1.90359565429E-08  1.95585580070E-08  2.00955066509E-08  2.06471963532E-08
  2.12140318058E-08  2.17964288110E-08  2.23948145860E-08  2.30096280767E-08
  2.36413202796E-08  2.42903545723E-08  2.49572070541E-08  2.56423668944E-08
  2.63463366924E-08  2.70696328451E-08  2.78127859262E-08  2.85763410759E-08
  2.93608583998E-08  3.01669133806E-08  3.09950973001E-08  3.18460176724E-08
  3.27202986902E-08  3.36185816824E-08  3.45415255843E-08  3.54898074215E-08
  3.64641228060E-08  3.74651864470E-08  3.84937326745E-08  3.95505159788E-08
  4.06363115630E-08  4.17519159127E-08  4.28981473792E-08  4.40758467807E-08
  4.52858780186E-08  4.65291287112E-08  4.78065108450E-08  4.91189614437E-08
  5.04674432554E-08  5.18529454588E-08  5.32764843891E-08  5.47391042833E-08
  5.62418780461E-08  5.77859080372E-08  5.93723268797E-08  6.10022982912E-08
  6.26770179371E-08  6.43977143080E-08  6.61656496206E-08  6.79821207440E-08
  6.98484601503E-08  7.17660368929E-08  7.37362576102E-08  7.57605675574E-08
  7.78404516671E-08  7.99774356383E-08  8.21730870555E-08  8.44290165386E-08
  8.67468789248E-08  8.91283744820E-08  9.15752501561E-08  9.40893008527E-08
  9.66723707537E-08  9.93263546699E-08  1.02053199431E-07  1.04854905314E-07
  1.07733527511E-07  1.10691177634E-07  1.13730025268E-07  1.16852299559E-07
  1.20060290851E-07  1.23356352367E-07  1.26742901932E-07  1.30222423750E-07
  1.33797470224E-07  1.37470663828E-07  1.41244699035E-07  1.45122344288E-07
  1.49106444032E-07  1.53199920805E-07  1.57405777376E-07  1.61727098951E-07
  1.66167055436E-07  1.70728903761E-07  1.75415990268E-07  1.80231753171E-07
  1.85179725072E-07  1.90263535556E-07  1.95486913852E-07  2.00853691569E-07
  2.06367805507E-07  2.12033300543E-07  2.17854332601E-07  2.23835171700E-07
  2.29980205084E-07  2.36293940442E-07  2.42781009214E-07  2.49446169989E-07
  2.56294311997E-07  2.63330458690E-07  2.70559771436E-07  2.77987553295E-07
  2.85619252917E-07  2.93460468535E-07  3.01516952073E-07  3.09794613364E-07
  3.18299524486E-07  3.27037924216E-07  3.36016222608E-07  3.45241005691E-07
  3.54719040306E-07  3.64457279065E-07  3.74462865452E-07  3.84743139064E-07
  3.95305640997E-07  4.06158119373E-07  4.17308535028E-07  4.28765067349E-07
  4.40536120275E-07  4.52630328461E-07  4.65056563613E-07  4.77823940996E-07
  4.90941826120E-07  5.04419841608E-07  5.18267874259E-07  5.32496082297E-07
  5.47114902823E-07  5.62135059473E-07  5.77567570282E-07  5.93423755768E-07
  6.09715247235E-07  6.26453995308E-07  6.43652278694E-07  6.61322713193E-07
  6.79478260953E-07  6.98132239974E-07  7.17298333883E-07  7.36990601968E-07
  7.57223489490E-07  7.78011838286E-07  7.99370897646E-07  8.21316335509E-07
  8.43864249950E-07  8.67031180991E-07  8.90834122734E-07  9.15290535826E-07
  9.40418360269E-07  9.66236028577E-07  9.92762479300E-07  1.02001717092E-06
  1.04802009610E-06  1.07679179641E-06  1.10635337731E-06  1.13672652370E-06
  1.16793351580E-06  1.19999724551E-06  1.23294123317E-06  1.26678964484E-06
  1.30156731003E-06  1.33729973988E-06  1.37401314593E-06  1.41173445928E-06
  1.45049135041E-06  1.49031224944E-06  1.53122636698E-06  1.57326371559E-06
  1.61645513176E-06  1.66083229855E-06  1.70642776883E-06  1.75327498916E-06
  1.80140832432E-06  1.85086308251E-06  1.90167554127E-06  1.95388297408E-06
  2.00752367769E-06  2.06263700025E-06  2.11926337013E-06  2.17744432561E-06
  2.23722254532E-06  2.29864187957E-06  2.36174738252E-06  2.42658534520E-06
  2.49320332950E-06  2.56165020305E-06  2.63197617504E-06  2.70423283309E-06
  2.77847318107E-06  2.85475167798E-06  2.93312427792E-06  3.01364847110E-06
  3.09638332605E-06  3.18138953290E-06  3.26872944798E-06  3.35846713946E-06
  3.45066843443E-06  3.54540096714E-06  3.64273422865E-06  3.74273961777E-06
  3.84549049344E-06  3.95106222857E-06  4.05953226530E-06  4.17098017183E-06
  4.28548770076E-06  4.40313884909E-06  4.52401991981E-06  4.64821958524E-06
  4.77582895203E-06  4.90694162804E-06  5.04165379096E-06  5.18006425889E-06
  5.32227456284E-06  5.46838902116E-06  5.61851481612E-06  5.77276207248E-06
  5.93124393832E-06  6.09407666801E-06  6.26137970750E-06  6.43327578191E-06
  6.60989098562E-06  6.79135487470E-06  6.97780056199E-06  7.16936481471E-06
  7.36618815481E-06  7.56841496206E-06  7.77619357992E-06  7.98967642440E-06
  8.20902009582E-06  8.43438549373E-06  8.66593793492E-06  8.90384727467E-06
  9.14828803138E-06  9.39943951454E-06  9.65748595634E-06  9.92261664673E-06
  1.01950260723E-05  1.04749140590E-05  1.07624859187E-05  1.10579525997E-05
  1.13615308415E-05  1.16734433340E-05  1.19939188805E-05  1.23231925660E-05
  1.26615059291E-05  1.30091071395E-05  1.33662511802E-05  1.37332000341E-05
  1.41102228766E-05  1.44975962727E-05  1.48956043802E-05  1.53045391579E-05
  1.57247005800E-05  1.61563968558E-05  1.65999446561E-05  1.70556693454E-05
  1.75239052205E-05  1.80049957560E-05  1.84992938556E-05  1.90071621117E-05
  1.95289730712E-05  2.00651095084E-05  2.06159647062E-05  2.11819427444E-05
  2.17634587962E-05  2.23609394326E-05  2.29748229357E-05  2.36055596195E-05
  2.42536121611E-05  2.49194559392E-05  2.56035793837E-05  2.63064843331E-05
  2.70286864036E-05  2.77707153663E-05  2.85331155366E-05  2.93164461730E-05
  3.01212818879E-05  3.09482130684E-05  3.17978463098E-05  3.26708048606E-05
  3.35677290795E-05  3.44892769053E-05  3.54361243393E-05  3.64089659415E-05
  3.74085153398E-05  3.84355057535E-05  3.94906905316E-05  4.05748437048E-05
  4.16887605536E-05  4.28332581917E-05  4.40091761653E-05  4.52173770690E-05
  4.64587471786E-05  4.77341971010E-05  4.90446624426E-05  5.03911044951E-05
  5.17745109411E-05  5.31958965783E-05  5.46563040642E-05  5.61568046806E-05
  5.76984991197E-05  5.92825182915E-05  6.09100241531E-05  6.25822105615E-05
  6.43003041489E-05  6.60655652228E-05  6.78792886906E-05  6.97428050089E-05
  7.16574811601E-05  7.36247216549E-05  7.56459695625E-05  7.77227075692E-05
  7.98564590662E-05  8.20487892668E-05  8.43013063548E-05  8.66156626640E-05
  8.89935558905E-05  9.14367303377E-05  9.39469781963E-05  9.65261408585E-05
  9.91761102689E-05  1.01898830313E-04  1.04696298241E-04  1.07570566136E-04
  1.10523742418E-04  1.13557993388E-04  1.16675544821E-04  1.19878683597E-04
  1.23169759379E-04  1.26551186335E-04  1.30025444911E-04  1.33595083648E-04
  1.37262721056E-04  1.41031047530E-04  1.44902827325E-04  1.48880900586E-04
  1.52968185427E-04  1.57167680078E-04  1.61482465076E-04  1.65915705532E-04
  1.70470653451E-04  1.75150650113E-04  1.79959128530E-04  1.84899615962E-04
  1.89975736502E-04  1.95191213740E-04  2.00549873487E-04  2.06055646589E-04
  2.11712571806E-04  2.17524798775E-04  2.23496591055E-04  2.29632329253E-04
  2.35936514242E-04  2.42413770454E-04  2.49068849282E-04  2.55906632558E-04
  2.62932136139E-04  2.70150513582E-04  2.77567059927E-04  2.85187215582E-04
  2.93016570313E-04  3.01060867341E-04  3.09326007562E-04  3.17818053867E-04
  3.26543235599E-04  3.35507953113E-04  3.44718782478E-04  3.54182480298E-04
  3.63905988667E-04  3.73896440266E-04  3.84161163589E-04  3.94707688324E-04
  4.05543750875E-04  4.16677300035E-04  4.28116502817E-04  4.39869750451E-04
  4.51945664528E-04  4.64353103337E-04  4.77101168354E-04  4.90199210922E-04
  5.03656839108E-04  5.17483924757E-04  5.31690610726E-04  5.46287318330E-04
  5.61284754983E-04  5.76693922055E-04  5.92526122939E-04  6.08792971346E-04
  6.25506399823E-04  6.42678668504E-04  6.60322374107E-04  6.78450459171E-04
  6.97076221553E-04  7.16213324181E-04  7.35875805075E-04  7.56078087649E-04
  7.76834991285E-04  7.98161742210E-04  8.20073984662E-04  8.42587792366E-04
  8.65719680324E-04  8.89486616933E-04  9.13906036428E-04  9.38995851674E-04
  9.64774467304E-04  9.91260793222E-04  1.01847425847E-03  1.04643482549E-03
  1.07516300474E-03  1.10467986980E-03  1.13500707274E-03  1.16616686010E-03
  1.19818208912E-03  1.23107624459E-03  1.26487345601E-03  1.29959851533E-03
  1.33527689510E-03  1.37193476720E-03  1.40959902203E-03  1.44829728818E-03
  1.48805795277E-03  1.52891018223E-03  1.57088394372E-03  1.61401002710E-03
  1.65832006748E-03  1.70384656852E-03  1.75062292616E-03  1.79868345321E-03
  1.84806340446E-03  1.89879900258E-03  1.95092746466E-03  2.00448702953E-03
  2.05951698582E-03  2.11605770074E-03  2.17415064973E-03  2.23383844689E-03
  2.29516487618E-03  2.35817492361E-03  2.42291481020E-03  2.48943202589E-03
  2.55777536438E-03  2.62799495893E-03  2.70014231911E-03  2.77427036863E-03
  2.85043348411E-03  2.92868753501E-03  3.00908992457E-03  3.09169963198E-03
  3.17657725558E-03  3.26378505734E-03  3.35338700856E-03  3.44544883673E-03
  3.54003807382E-03  3.63722410575E-03  3.73707822333E-03  3.83967367455E-03
  3.94508571831E-03  4.05339167960E-03  4.16467100625E-03  4.27900532723E-03
  4.39647851245E-03  4.51717673439E-03  4.64118853120E-03  4.76860487175E-03
  4.89951922229E-03  5.03402761504E-03  5.17222871862E-03  5.31422391046E-03
  5.46011735111E-03  5.61001606072E-03  5.76402999747E-03  5.92227213829E-03
  6.08485856169E-03  6.25190853294E-03  6.42354459154E-03  6.59989264112E-03
  6.78108204179E-03  6.96724570503E-03  7.15852019119E-03  7.35504580966E-03
  7.55696672180E-03  7.76443104671E-03  7.97759096981E-03  8.19660285458E-03
  8.42162735718E-03  8.65282954432E-03  8.89037901436E-03  9.13445002172E-03
  9.38522160466E-03  9.64287771669E-03  9.90760736143E-03  1.01796047313E-02
  1.04590693500E-02  1.07462062188E-02  1.10412259668E-02  1.13443450059E-02
  1.16557856891E-02  1.19757764735E-02  1.23045520884E-02  1.26423537073E-02
  1.29894291244E-02  1.33460329369E-02  1.37124267316E-02  1.40888792766E-02
  1.44756667186E-02  1.48730727856E-02  1.52813889947E-02  1.57009148664E-02
  1.61319581438E-02  1.65748350188E-02  1.70298703635E-02  1.74973979693E-02
  1.79777607909E-02  1.84713111985E-02  1.89784112359E-02  1.94994328865E-02
  2.00347583456E-02  2.05847803012E-02  2.11499022219E-02  2.17305386529E-02
  2.23271155199E-02  2.29400704420E-02  2.35698530522E-02  2.42169253276E-02
  2.48817619280E-02  2.55648505442E-02  2.62666922559E-02  2.69878018991E-02
  2.77287084437E-02  2.84899553817E-02  2.92721011258E-02  3.00757194189E-02
  3.09013997554E-02  3.17497478128E-02  3.26213858970E-02  3.35169533981E-02
  3.44371072594E-02  3.53825224600E-02  3.63538925091E-02  3.73519299552E-02
  3.83773669085E-02  3.94309555785E-02  4.05134688249E-02  4.16257007254E-02
  4.27684671577E-02  4.39426063981E-02  4.51489797362E-02  4.63884721074E-02
  4.76619927412E-02  4.89704758286E-02  5.03148812074E-02  5.16961950660E-02
  5.31154306673E-02  5.45736290915E-02  5.60718599999E-02  5.76112224199E-02
  5.91928455508E-02  6.08178895920E-02  6.24875465947E-02  6.42030413357E-02
  6.59656322161E-02  6.77766121844E-02  6.96373096849E-02  7.15490896323E-02
  7.35133544126E-02  7.55315449123E-02  7.76051415750E-02  7.97356654873E-02
  8.19246794952E-02  8.41737893497E-02  8.64846448853E-02  8.88589412302E-02
  9.12984200492E-02  9.38048708220E-02  9.63801321555E-02  9.90260931327E-02
  1.01744694698E-01  1.04537931082E-01  1.07407851262E-01  1.10356560470E-01
  1.13386221729E-01  1.16499057449E-01  1.19697351049E-01  1.22983448639E-01
  1.26359760734E-01  1.29828764028E-01  1.33393003210E-01  1.37055092825E-01
  1.40817719201E-01  1.44683642411E-01  1.48655698304E-01  1.52736800580E-01
  1.56929942933E-01  1.61238201242E-01  1.65664735829E-01  1.70212793779E-01
  1.74885711320E-01  1.79686916270E-01  1.84619930554E-01  1.89688372783E-01
  1.94895960913E-01  2.00246514970E-01  2.05743959854E-01  2.11392328215E-01
  2.17195763413E-01  2.23158522558E-01  2.29284979631E-01  2.35579628696E-01
  2.42047087192E-01  2.48692099323E-01  2.55519539537E-01  2.62534416104E-01
  2.69741874784E-01  2.77147202611E-01  2.84755831761E-01  2.92573343545E-01
  3.00605472498E-01  3.08858110588E-01  3.17337311538E-01  3.26049295265E-01
  3.35000452444E-01  3.44197349197E-01  3.53646731908E-01  3.63355532170E-01